/*--------------------------------*- C++ -*----------------------------------*\
  =========                 |
  \\      /  F ield         | OpenFOAM: The Open Source CFD Toolbox
   \\    /   O peration     | Website:  https://openfoam.org
    \\  /    A nd           | Version:  8
     \\/     M anipulation  |
\*---------------------------------------------------------------------------*/
FoamFile
{
    version     2.0;
    format      ascii;
    class       volVectorField;
    location    "0";
    object      U;
}
// * * * * * * * * * * * * * * * * * * * * * * * * * * * * * * * * * * * * * //

dimensions      [0 1 -1 0 0 0 0];

internalField   nonuniform List<vector> 
16384
(
(0.588216 0 0.0268769)
(0.648113 0 0.114222)
(0.570385 0 0.0896617)
(0.564397 0 0.0906963)
(0.609683 0 0.116728)
(0.590436 0 0.0613323)
(0.570669 0 0.007637)
(0.613938 0 -0.0540415)
(0.603065 0 -0.0989972)
(0.556343 0 -0.080521)
(0.587061 0 -0.110812)
(0.597514 0 -0.0947172)
(0.572595 0 -0.0379969)
(0.573841 0 0.00788935)
(0.605767 0 0.069456)
(0.613069 0 0.119656)
(0.592767 0 0.119378)
(0.59029 0 0.108311)
(0.594435 0 0.0788682)
(0.604417 0 0.0307125)
(0.610639 0 -0.0321853)
(0.58713 0 -0.0740569)
(0.620869 0 -0.136962)
(0.584198 0 -0.110715)
(0.596054 0 -0.104943)
(0.585027 0 -0.0584666)
(0.599041 0 -0.00989442)
(0.632722 0 0.0613313)
(0.596521 0 0.0939509)
(0.564112 0 0.0881814)
(0.620961 0 0.144241)
(0.601644 0 0.097902)
(2.06523 0 0.0901319)
(2.11239 0 0.281814)
(2.21584 0 0.497814)
(2.19462 0 0.515717)
(1.99959 0 0.272444)
(2.18572 0 0.265581)
(2.14436 0 0.0365889)
(2.23759 0 -0.214644)
(2.03621 0 -0.271209)
(2.12475 0 -0.434118)
(2.102 0 -0.411689)
(2.0275 0 -0.2645)
(2.24979 0 -0.21938)
(2.18772 0 0.0400393)
(2.03717 0 0.186867)
(2.13008 0 0.385279)
(2.08452 0 0.404413)
(2.07592 0 0.366723)
(1.96347 0 0.183731)
(2.05698 0 0.0881801)
(2.01636 0 -0.0785634)
(2.11458 0 -0.283252)
(2.15943 0 -0.44497)
(2.18768 0 -0.508707)
(2.25541 0 -0.493647)
(2.02549 0 -0.180681)
(2.10828 0 -0.0337186)
(2.03405 0 0.135655)
(2.02592 0 0.263277)
(1.94814 0 0.25997)
(2.10442 0 0.414074)
(2.19759 0 0.39566)
(4.3726 0 0.194409)
(4.42911 0 0.578066)
(4.10246 0 0.516291)
(4.47321 0 0.931928)
(4.69355 0 0.987577)
(4.17875 0 0.33241)
(4.61791 0 0.0848579)
(4.75422 0 -0.466791)
(4.161 0 -0.470076)
(4.25307 0 -0.691904)
(4.34553 0 -0.783075)
(4.557 0 -0.775451)
(4.51997 0 -0.375883)
(4.3412 0 0.0628404)
(4.58649 0 0.54846)
(4.20626 0 0.566235)
(4.34405 0 0.801347)
(4.3607 0 0.758239)
(4.3072 0 0.49777)
(4.31831 0 0.181556)
(4.46982 0 -0.217424)
(4.36736 0 -0.537396)
(4.44496 0 -0.837181)
(4.37491 0 -0.832544)
(4.48697 0 -0.808954)
(4.42638 0 -0.463621)
(4.4879 0 -0.0745134)
(4.49217 0 0.365095)
(4.06751 0 0.397981)
(4.50306 0 0.938419)
(4.61691 0 1.05068)
(4.61798 0 0.822471)
(7.555 0 0.277042)
(7.76124 0 0.906572)
(8.15494 0 1.65852)
(7.48316 0 1.11047)
(8.13857 0 1.51648)
(7.75741 0 0.727332)
(8.2034 0 0.144702)
(7.99348 0 -0.624321)
(7.77289 0 -1.07044)
(7.72226 0 -1.31891)
(8.02418 0 -1.61662)
(7.7096 0 -1.02163)
(7.7366 0 -0.524627)
(7.92469 0 0.122527)
(7.68351 0 0.688174)
(8.10818 0 1.4902)
(7.26407 0 0.888969)
(7.67458 0 1.20846)
(7.50525 0 0.737968)
(7.87064 0 0.351767)
(8.52785 0 -0.507357)
(8.44752 0 -1.35856)
(7.89667 0 -1.41654)
(7.61761 0 -1.2464)
(8.28283 0 -1.64122)
(7.90846 0 -0.80737)
(7.34986 0 -0.0767895)
(7.49968 0 0.432682)
(7.48004 0 0.844612)
(7.69633 0 1.29333)
(7.60817 0 1.2064)
(8.17861 0 1.38331)
(12.2395 0 0.397018)
(12.6192 0 1.35459)
(12.6394 0 1.94585)
(12.464 0 1.92237)
(12.4297 0 1.61454)
(12.0123 0 0.768219)
(12.3066 0 0.138773)
(12.253 0 -0.65606)
(12.4153 0 -1.42878)
(12.2631 0 -1.67691)
(12.7298 0 -2.1372)
(12.7262 0 -1.66849)
(13.0949 0 -0.982781)
(11.8709 0 0.104104)
(12.8271 0 1.19996)
(13.0504 0 2.15122)
(13.0856 0 2.55083)
(11.9992 0 1.34603)
(12.6522 0 1.3763)
(12.3686 0 0.427567)
(11.6741 0 -0.263159)
(12.9653 0 -1.58252)
(12.227 0 -1.55953)
(12.9406 0 -2.4042)
(12.4751 0 -1.65375)
(12.2676 0 -0.903507)
(12.0374 0 -0.117356)
(12.3298 0 0.685877)
(12.1785 0 1.24619)
(12.0094 0 1.42682)
(12.184 0 1.59898)
(12.9114 0 1.81136)
(17.8518 0 0.343175)
(17.6723 0 0.836472)
(17.8773 0 1.38207)
(18.2824 0 1.90084)
(18.1195 0 1.48493)
(17.7423 0 0.710085)
(17.8956 0 0.118822)
(18.0459 0 -0.637891)
(17.8741 0 -1.13504)
(18.2317 0 -1.80405)
(17.8405 0 -1.4183)
(17.5665 0 -0.897825)
(17.8008 0 -0.542788)
(17.8416 0 0.114526)
(18.162 0 0.932473)
(17.9156 0 1.30862)
(18.0104 0 1.62588)
(18.4019 0 1.87356)
(17.876 0 0.970655)
(18.4142 0 0.476312)
(18.192 0 -0.423719)
(17.674 0 -0.837618)
(17.7551 0 -1.26756)
(17.4717 0 -1.08125)
(17.9496 0 -1.33802)
(17.4583 0 -0.559617)
(17.8327 0 -0.11382)
(17.627 0 0.475307)
(17.8098 0 1.08542)
(17.6925 0 1.27236)
(18.1176 0 1.69153)
(18.142 0 1.34164)
(24.0514 0 0.0827268)
(24.0248 0 0.212574)
(24.0359 0 0.312862)
(23.9942 0 0.295373)
(23.9918 0 0.250611)
(24.1373 0 0.230633)
(24.0396 0 0.0268623)
(24.0103 0 -0.119661)
(24.0971 0 -0.30469)
(24.0045 0 -0.298348)
(24.1638 0 -0.455358)
(23.9513 0 -0.192223)
(23.9605 0 -0.100315)
(24.1912 0 0.0389269)
(24.0086 0 0.162484)
(24.1664 0 0.401542)
(24.1087 0 0.411166)
(24.1019 0 0.374661)
(24.0093 0 0.202428)
(23.9484 0 0.058327)
(24.0544 0 -0.0834343)
(24.1281 0 -0.280638)
(23.9601 0 -0.241841)
(24.0839 0 -0.38612)
(24.0462 0 -0.297606)
(23.9112 0 -0.110858)
(23.9716 0 -0.0214533)
(24.0727 0 0.143855)
(23.8984 0 0.151465)
(24.0907 0 0.383315)
(23.9586 0 0.253066)
(23.992 0 0.223658)
(30.3771 0 0.000773811)
(30.3767 0 0.00192095)
(30.3777 0 0.00364065)
(30.3768 0 0.00301551)
(30.3781 0 0.00375818)
(30.3766 0 0.00147372)
(30.3773 0 0.00027902)
(30.3773 0 -0.00134449)
(30.3773 0 -0.0026601)
(30.3786 0 -0.00469707)
(30.3768 0 -0.00297305)
(30.3778 0 -0.00308198)
(30.3778 0 -0.00154807)
(30.3776 0 0.000300102)
(30.3763 0 0.00132568)
(30.3779 0 0.00350663)
(30.3777 0 0.00391069)
(30.3782 0 0.00410918)
(30.3776 0 0.00250831)
(30.3778 0 0.000942625)
(30.3776 0 -0.000896829)
(30.3772 0 -0.00226904)
(30.3778 0 -0.00378301)
(30.3775 0 -0.00370995)
(30.3766 0 -0.00241389)
(30.377 0 -0.00169383)
(30.3782 0 -0.000350472)
(30.3753 0 0.000595238)
(30.3765 0 0.00205966)
(30.3774 0 0.00355833)
(30.3767 0 0.00281011)
(30.3763 0 0.00193306)
(0.567976 0 0.0333143)
(0.535868 0 0.0607825)
(0.568473 0 0.132547)
(0.535133 0 0.0921814)
(0.546104 0 0.0931502)
(0.555711 0 0.064761)
(0.57911 0 0.012533)
(0.545817 0 -0.0416397)
(0.543949 0 -0.0805672)
(0.555889 0 -0.120785)
(0.58115 0 -0.158359)
(0.56248 0 -0.102122)
(0.547865 0 -0.0428386)
(0.541326 0 0.00799812)
(0.535043 0 0.0482413)
(0.556907 0 0.10724)
(0.556223 0 0.124343)
(0.529368 0 0.07728)
(0.537593 0 0.0624959)
(0.530525 0 0.0199403)
(0.550497 0 -0.0270722)
(0.553941 0 -0.0787375)
(0.560061 0 -0.120657)
(0.569248 0 -0.144206)
(0.517828 0 -0.0562688)
(0.570615 0 -0.0766735)
(0.552228 0 -0.00930663)
(0.562093 0 0.0511678)
(0.555672 0 0.0942027)
(0.563738 0 0.132461)
(0.524945 0 0.074757)
(0.542226 0 0.0785624)
(1.98888 0 0.108693)
(1.97903 0 0.292605)
(1.85423 0 0.23987)
(1.91147 0 0.346124)
(1.86673 0 0.237676)
(1.96287 0 0.222489)
(1.98688 0 0.0362912)
(2.03725 0 -0.206499)
(1.99817 0 -0.364854)
(1.8822 0 -0.294062)
(1.96578 0 -0.418386)
(1.93593 0 -0.292457)
(1.87762 0 -0.113051)
(1.95662 0 0.0326594)
(1.79075 0 0.0849174)
(1.93992 0 0.333143)
(1.93219 0 0.377716)
(1.92255 0 0.33643)
(1.91365 0 0.227646)
(1.89815 0 0.0762948)
(1.9764 0 -0.104237)
(2.021 0 -0.334304)
(1.83801 0 -0.216951)
(1.93087 0 -0.375714)
(2.01177 0 -0.426848)
(1.95426 0 -0.215608)
(1.95019 0 -0.0318877)
(1.88876 0 0.119568)
(1.98219 0 0.346265)
(1.92783 0 0.361927)
(2.04969 0 0.543198)
(1.95715 0 0.317142)
(3.94298 0 0.13983)
(4.07793 0 0.523084)
(4.21592 0 0.939135)
(4.32517 0 1.17998)
(4.05314 0 0.654413)
(3.78097 0 0.183478)
(4.20281 0 0.0781814)
(4.25835 0 -0.413842)
(4.18561 0 -0.737702)
(4.07479 0 -0.778498)
(4.01314 0 -0.686806)
(4.10006 0 -0.6382)
(4.1728 0 -0.363759)
(3.96807 0 0.0500072)
(3.93069 0 0.303148)
(4.15359 0 0.785426)
(4.25234 0 1.06892)
(4.01685 0 0.657788)
(4.04487 0 0.490241)
(4.1646 0 0.218975)
(4.09935 0 -0.195673)
(4.10196 0 -0.546954)
(3.9626 0 -0.581122)
(4.27604 0 -1.10507)
(4.08634 0 -0.697706)
(4.01595 0 -0.371295)
(4.14074 0 -0.0707322)
(4.25436 0 0.411506)
(4.00455 0 0.527092)
(4.11339 0 0.835925)
(3.97705 0 0.633119)
(4.28903 0 0.858002)
(7.28133 0 0.320171)
(7.58528 0 1.19268)
(7.47941 0 1.54704)
(7.35502 0 1.47965)
(7.28741 0 1.17733)
(7.0586 0 0.538587)
(7.17267 0 0.0945658)
(7.17406 0 -0.462057)
(7.6957 0 -1.5249)
(7.70484 0 -1.96356)
(7.32914 0 -1.40472)
(6.90615 0 -0.606479)
(7.24365 0 -0.502794)
(7.40184 0 0.12207)
(7.38794 0 0.801818)
(7.55599 0 1.52764)
(7.31439 0 1.4177)
(7.29988 0 1.29331)
(7.59265 0 1.20001)
(7.1617 0 0.277449)
(7.37813 0 -0.35474)
(7.3671 0 -0.975926)
(7.29508 0 -1.28653)
(7.29613 0 -1.38984)
(6.98433 0 -0.782023)
(7.05543 0 -0.536049)
(7.312 0 -0.111288)
(6.82093 0 0.25533)
(7.67414 0 1.49982)
(7.55632 0 1.74264)
(7.6756 0 1.92006)
(7.44545 0 1.2338)
(12.2331 0 0.596582)
(11.989 0 1.41723)
(11.6512 0 1.53866)
(11.79 0 1.87201)
(11.4543 0 1.16323)
(11.3826 0 0.655483)
(11.7585 0 0.14355)
(12.0403 0 -0.865113)
(11.7301 0 -1.35818)
(11.5579 0 -1.48063)
(11.8158 0 -1.86424)
(11.3088 0 -0.868088)
(11.184 0 -0.363798)
(11.6125 0 0.126018)
(11.8969 0 1.06656)
(12.1886 0 2.12089)
(11.8792 0 2.00794)
(11.588 0 1.44927)
(12.1614 0 1.58844)
(11.8724 0 0.467757)
(11.7683 0 -0.4306)
(11.6695 0 -1.09978)
(11.7469 0 -1.67382)
(12.026 0 -2.23186)
(11.8697 0 -1.70493)
(11.7714 0 -0.966229)
(11.7417 0 -0.141531)
(11.874 0 0.767751)
(11.5554 0 1.15494)
(11.7589 0 1.77962)
(11.9801 0 2.10864)
(11.7655 0 1.39936)
(17.6283 0 0.437834)
(16.995 0 0.588931)
(17.4267 0 1.44788)
(17.184 0 1.19216)
(17.5926 0 1.55258)
(17.5308 0 0.902044)
(17.9017 0 0.179976)
(17.4063 0 -0.58777)
(17.6403 0 -1.44012)
(17.433 0 -1.53331)
(17.6305 0 -1.82708)
(17.3655 0 -1.12045)
(17.4828 0 -0.632557)
(17.5893 0 0.142475)
(16.9101 0 0.405953)
(17.2159 0 1.06124)
(17.4307 0 1.56851)
(17.5727 0 1.65423)
(17.478 0 1.06877)
(17.49 0 0.38847)
(17.4555 0 -0.376144)
(17.3451 0 -0.936725)
(17.6029 0 -1.69687)
(17.292 0 -1.35693)
(17.5674 0 -1.51978)
(17.6051 0 -0.961427)
(17.3079 0 -0.108698)
(17.3859 0 0.575877)
(17.676 0 1.4817)
(17.4217 0 1.51641)
(17.2953 0 1.32844)
(17.3388 0 1.08941)
(23.9459 0 0.0871085)
(23.9819 0 0.278094)
(23.9499 0 0.350295)
(23.9483 0 0.375648)
(23.965 0 0.343029)
(23.9582 0 0.204813)
(23.9452 0 0.0291878)
(24.0149 0 -0.183158)
(23.9271 0 -0.261847)
(23.91 0 -0.309365)
(23.9754 0 -0.406692)
(23.8509 0 -0.173203)
(23.9722 0 -0.158186)
(23.9513 0 0.0299206)
(23.9564 0 0.203315)
(23.9493 0 0.322628)
(23.876 0 0.265408)
(23.9119 0 0.296686)
(23.9665 0 0.262792)
(23.95 0 0.088572)
(23.9431 0 -0.0861186)
(23.8968 0 -0.193504)
(23.9161 0 -0.302647)
(23.8953 0 -0.29473)
(23.878 0 -0.2296)
(23.9867 0 -0.227523)
(23.9072 0 -0.0246302)
(23.8993 0 0.115476)
(23.9562 0 0.295693)
(23.8841 0 0.270886)
(23.9417 0 0.356629)
(23.9303 0 0.265563)
(30.3768 0 0.00105847)
(30.3764 0 0.00254285)
(30.376 0 0.00306659)
(30.3764 0 0.00391061)
(30.3763 0 0.00325253)
(30.3753 0 0.00118507)
(30.3771 0 0.000400691)
(30.3762 0 -0.00141308)
(30.3758 0 -0.00231153)
(30.3765 0 -0.00395275)
(30.3762 0 -0.00357172)
(30.376 0 -0.00256057)
(30.3766 0 -0.00165985)
(30.3767 0 0.000343957)
(30.3764 0 0.00206206)
(30.377 0 0.00417496)
(30.3761 0 0.00346107)
(30.3768 0 0.00427987)
(30.3757 0 0.00190935)
(30.3758 0 0.000715231)
(30.3755 0 -0.000623807)
(30.3771 0 -0.00325948)
(30.3753 0 -0.00205355)
(30.3777 0 -0.00591072)
(30.3772 0 -0.00439491)
(30.3764 0 -0.00209727)
(30.376 0 -0.000266822)
(30.3755 0 0.00097132)
(30.3767 0 0.00334167)
(30.3764 0 0.00383333)
(30.3767 0 0.00428911)
(30.3758 0 0.002365)
(0.487722 0 0.0301272)
(0.488352 0 0.0878685)
(0.486889 0 0.111612)
(0.488333 0 0.134691)
(0.488709 0 0.11837)
(0.486132 0 0.059209)
(0.485158 0 0.00813441)
(0.489648 0 -0.0566858)
(0.486525 0 -0.0891246)
(0.48926 0 -0.1403)
(0.484742 0 -0.0968022)
(0.490292 0 -0.117485)
(0.491931 0 -0.0653376)
(0.485819 0 0.00864784)
(0.490472 0 0.0816591)
(0.484085 0 0.0793361)
(0.489254 0 0.143781)
(0.486632 0 0.109268)
(0.488136 0 0.0864773)
(0.485494 0 0.0249788)
(0.491998 0 -0.0400106)
(0.487895 0 -0.0849294)
(0.48666 0 -0.109523)
(0.487873 0 -0.130148)
(0.490085 0 -0.129986)
(0.488226 0 -0.0700423)
(0.485607 0 -0.0084825)
(0.481277 0 0.0249704)
(0.490962 0 0.122529)
(0.485899 0 0.107947)
(0.485082 0 0.100076)
(0.4848 0 0.0761393)
(1.7407 0 0.129886)
(1.73964 0 0.354527)
(1.72425 0 0.363555)
(1.73485 0 0.496877)
(1.72819 0 0.36879)
(1.72809 0 0.225451)
(1.72264 0 0.0296233)
(1.73011 0 -0.172773)
(1.72994 0 -0.342016)
(1.73185 0 -0.455758)
(1.7276 0 -0.414918)
(1.72925 0 -0.336857)
(1.73475 0 -0.190357)
(1.72769 0 0.0335475)
(1.7268 0 0.218795)
(1.71686 0 0.273101)
(1.71703 0 0.321)
(1.72781 0 0.396129)
(1.72563 0 0.264396)
(1.72818 0 0.100945)
(1.73356 0 -0.113372)
(1.72247 0 -0.244113)
(1.72913 0 -0.40822)
(1.73164 0 -0.465238)
(1.7309 0 -0.391653)
(1.72582 0 -0.213702)
(1.72963 0 -0.0350527)
(1.72961 0 0.170904)
(1.72504 0 0.305133)
(1.73484 0 0.484546)
(1.72855 0 0.424066)
(1.73456 0 0.37683)
(3.63319 0 0.189009)
(3.64678 0 0.613203)
(3.64705 0 0.874813)
(3.65049 0 0.977918)
(3.65186 0 0.847994)
(3.63918 0 0.454037)
(3.62574 0 0.0577345)
(3.64939 0 -0.371224)
(3.64041 0 -0.670006)
(3.65438 0 -0.991334)
(3.64263 0 -0.878132)
(3.63029 0 -0.593854)
(3.63493 0 -0.316445)
(3.62224 0 0.0550223)
(3.64893 0 0.50447)
(3.65219 0 0.850742)
(3.63106 0 0.786189)
(3.65929 0 0.986805)
(3.61205 0 0.389898)
(3.60931 0 0.133819)
(3.65072 0 -0.229539)
(3.65101 0 -0.640423)
(3.62402 0 -0.664125)
(3.61417 0 -0.619465)
(3.6484 0 -0.818761)
(3.61322 0 -0.319761)
(3.66745 0 -0.0901402)
(3.6315 0 0.303447)
(3.62337 0 0.541733)
(3.67193 0 1.16022)
(3.69889 0 1.41981)
(3.64541 0 0.707635)
(6.52493 0 0.323968)
(6.51004 0 0.805518)
(6.57993 0 1.7852)
(6.54291 0 1.56096)
(6.54545 0 1.35647)
(6.55378 0 0.874369)
(6.52818 0 0.111405)
(6.46811 0 -0.315783)
(6.54496 0 -1.20606)
(6.57227 0 -1.80519)
(6.51283 0 -1.23294)
(6.56519 0 -1.35836)
(6.50908 0 -0.471023)
(6.54915 0 0.1277)
(6.51624 0 0.68013)
(6.48775 0 0.869367)
(6.58708 0 1.99694)
(6.55061 0 1.51698)
(6.49008 0 0.677196)
(6.47636 0 0.211707)
(6.48433 0 -0.230121)
(6.48146 0 -0.62175)
(6.4769 0 -0.84275)
(6.56784 0 -1.80701)
(6.58597 0 -1.69852)
(6.598 0 -1.10313)
(6.55883 0 -0.135218)
(6.49835 0 0.430347)
(6.54117 0 1.17755)
(6.47708 0 0.888802)
(6.50662 0 1.17315)
(6.60118 0 1.62931)
(10.8045 0 0.559258)
(10.7228 0 1.0305)
(10.7781 0 1.97209)
(10.7797 0 2.14379)
(10.7317 0 1.42856)
(10.7601 0 1.02213)
(10.7549 0 0.14944)
(10.7264 0 -0.620919)
(10.8291 0 -2.0074)
(10.76 0 -1.90133)
(10.7617 0 -1.91751)
(10.7109 0 -1.11703)
(10.7918 0 -0.868771)
(10.8059 0 0.189035)
(10.8151 0 1.30682)
(10.7748 0 1.79253)
(10.7645 0 1.99335)
(10.7643 0 1.84612)
(10.7506 0 1.20972)
(10.7306 0 0.388439)
(10.7163 0 -0.355441)
(10.7222 0 -1.02695)
(10.768 0 -1.88006)
(10.7322 0 -1.67449)
(10.6932 0 -1.10362)
(10.7522 0 -0.981216)
(10.7816 0 -0.170192)
(10.7362 0 0.658124)
(10.7837 0 1.66502)
(10.7649 0 1.94834)
(10.7204 0 1.51971)
(10.7671 0 1.54024)
(16.5762 0 0.402213)
(16.575 0 1.1111)
(16.5828 0 1.65227)
(16.6326 0 2.27383)
(16.5898 0 1.5835)
(16.5372 0 0.698536)
(16.5324 0 0.101137)
(16.5572 0 -0.587064)
(16.6075 0 -1.54558)
(16.5525 0 -1.44662)
(16.5646 0 -1.56344)
(16.5614 0 -1.19817)
(16.5498 0 -0.559164)
(16.5399 0 0.106942)
(16.5352 0 0.687875)
(16.5185 0 0.981403)
(16.5272 0 1.23387)
(16.6001 0 1.80965)
(16.6033 0 1.29312)
(16.5001 0 0.226277)
(16.5561 0 -0.3557)
(16.5605 0 -1.01759)
(16.5422 0 -1.28055)
(16.6228 0 -2.17735)
(16.5356 0 -1.12627)
(16.5364 0 -0.694008)
(16.5496 0 -0.1145)
(16.5404 0 0.523572)
(16.605 0 1.52674)
(16.6126 0 2.0255)
(16.5143 0 1.07886)
(16.5902 0 1.41514)
(23.7363 0 0.0793751)
(23.7442 0 0.271218)
(23.7371 0 0.321462)
(23.7419 0 0.393497)
(23.7414 0 0.332524)
(23.7442 0 0.218537)
(23.7388 0 0.028609)
(23.7377 0 -0.135199)
(23.7328 0 -0.232207)
(23.7353 0 -0.32079)
(23.7401 0 -0.367102)
(23.7312 0 -0.219681)
(23.7518 0 -0.188593)
(23.7367 0 0.026969)
(23.7398 0 0.195479)
(23.7477 0 0.385429)
(23.7267 0 0.244044)
(23.744 0 0.383879)
(23.7407 0 0.248676)
(23.7501 0 0.111082)
(23.7519 0 -0.115455)
(23.7384 0 -0.234387)
(23.73 0 -0.255845)
(23.7496 0 -0.469421)
(23.7422 0 -0.339624)
(23.7297 0 -0.143184)
(23.7305 0 -0.0221422)
(23.7343 0 0.122264)
(23.7253 0 0.175548)
(23.7399 0 0.36523)
(23.7308 0 0.27719)
(23.7347 0 0.246389)
(30.3741 0 0.000769379)
(30.3741 0 0.00182237)
(30.3742 0 0.00388519)
(30.3741 0 0.00325237)
(30.3741 0 0.002421)
(30.3742 0 0.0023039)
(30.3742 0 0.000292588)
(30.3741 0 -0.0012939)
(30.3741 0 -0.0025628)
(30.3742 0 -0.00382789)
(30.374 0 -0.00224232)
(30.3741 0 -0.00239843)
(30.3743 0 -0.00172607)
(30.3742 0 0.000292235)
(30.3741 0 0.00135312)
(30.3743 0 0.00413847)
(30.3742 0 0.00384633)
(30.3741 0 0.00233802)
(30.3741 0 0.00208001)
(30.3742 0 0.000827379)
(30.3741 0 -0.000682629)
(30.3741 0 -0.00180921)
(30.3741 0 -0.00265789)
(30.3741 0 -0.00309276)
(30.3743 0 -0.00425496)
(30.3742 0 -0.00198144)
(30.3741 0 -0.000264017)
(30.3743 0 0.00176)
(30.3741 0 0.00261799)
(30.3742 0 0.00367403)
(30.3742 0 0.00404642)
(30.3742 0 0.00290389)
(0.412295 0 0.0299847)
(0.428205 0 0.0621463)
(0.403815 0 0.134796)
(0.422856 0 0.106373)
(0.399779 0 0.131486)
(0.416314 0 0.0627888)
(0.39834 0 0.0123317)
(0.419793 0 -0.0432464)
(0.420367 0 -0.0850332)
(0.414983 0 -0.119515)
(0.410766 0 -0.127957)
(0.431397 0 -0.0677676)
(0.408812 0 -0.0518972)
(0.422496 0 0.00842992)
(0.417323 0 0.0617031)
(0.399193 0 0.132514)
(0.429329 0 0.0930894)
(0.414122 0 0.115193)
(0.423781 0 0.0680604)
(0.424333 0 0.0241995)
(0.395815 0 -0.0379047)
(0.410331 0 -0.0860437)
(0.42708 0 -0.0905467)
(0.417969 0 -0.116402)
(0.413677 0 -0.10709)
(0.427093 0 -0.0511946)
(0.435018 0 -0.00640729)
(0.42165 0 0.0417836)
(0.414008 0 0.094988)
(0.411755 0 0.125975)
(0.408914 0 0.131663)
(0.416983 0 0.0903316)
(1.48456 0 0.0960908)
(1.43607 0 0.332155)
(1.47929 0 0.390318)
(1.4773 0 0.425253)
(1.48694 0 0.346784)
(1.44792 0 0.254487)
(1.4884 0 0.0316761)
(1.50275 0 -0.14319)
(1.48995 0 -0.304559)
(1.54026 0 -0.288749)
(1.50407 0 -0.361186)
(1.483 0 -0.31545)
(1.46708 0 -0.171291)
(1.45991 0 0.036277)
(1.46134 0 0.240053)
(1.45248 0 0.40727)
(1.53555 0 0.305716)
(1.39155 0 0.55719)
(1.47166 0 0.284571)
(1.41248 0 0.130731)
(1.44594 0 -0.114654)
(1.47419 0 -0.281192)
(1.4765 0 -0.395622)
(1.37728 0 -0.630527)
(1.51516 0 -0.297249)
(1.49504 0 -0.203802)
(1.48401 0 -0.032384)
(1.52211 0 0.127937)
(1.49965 0 0.289376)
(1.46543 0 0.438536)
(1.47756 0 0.414268)
(1.51264 0 0.269041)
(3.04872 0 0.241589)
(2.98435 0 0.758166)
(3.28517 0 0.506375)
(2.96205 0 1.20957)
(3.27056 0 0.492981)
(3.11709 0 0.467178)
(3.26241 0 0.0466795)
(3.09282 0 -0.361286)
(3.15622 0 -0.61865)
(3.15248 0 -0.798571)
(3.05163 0 -1.00046)
(3.12175 0 -0.672597)
(3.02076 0 -0.41806)
(3.23985 0 0.0503236)
(3.0597 0 0.528906)
(3.1376 0 0.726363)
(3.13667 0 0.851185)
(2.97913 0 1.08845)
(3.11915 0 0.577928)
(3.20086 0 0.16847)
(3.14186 0 -0.196823)
(3.08974 0 -0.617253)
(3.06073 0 -0.933261)
(3.20856 0 -0.703638)
(3.06736 0 -0.849659)
(3.0105 0 -0.58183)
(3.00855 0 -0.0876835)
(3.05399 0 0.391879)
(3.07062 0 0.752645)
(3.16969 0 0.764123)
(3.33483 0 0.43355)
(3.09226 0 0.718761)
(5.9013 0 0.232344)
(5.61274 0 1.03219)
(5.62671 0 1.44179)
(5.71988 0 1.36455)
(5.66708 0 1.25975)
(5.55792 0 0.889399)
(5.70361 0 0.11002)
(5.61652 0 -0.605233)
(5.87211 0 -0.802524)
(5.45696 0 -1.85726)
(5.70367 0 -1.36341)
(5.61046 0 -1.21211)
(5.86891 0 -0.406396)
(5.68885 0 0.112404)
(5.89356 0 0.528361)
(5.69997 0 1.20202)
(6.08047 0 0.624506)
(5.50286 0 1.67735)
(5.37224 0 1.35374)
(5.73092 0 0.31423)
(5.61543 0 -0.369733)
(6.00887 0 -0.502575)
(5.65704 0 -1.3841)
(5.60559 0 -1.59912)
(5.59999 0 -1.37751)
(5.75453 0 -0.677907)
(5.69289 0 -0.111753)
(5.72765 0 0.517689)
(5.74256 0 1.00532)
(5.56107 0 1.64886)
(5.71271 0 1.34531)
(5.65701 0 1.13924)
(9.93113 0 0.303428)
(9.8205 0 0.992054)
(9.47777 0 2.06312)
(9.45449 0 2.27399)
(9.59267 0 1.70235)
(9.50318 0 1.13946)
(9.84047 0 0.116623)
(9.43418 0 -0.888913)
(9.66242 0 -1.40901)
(9.63349 0 -1.85969)
(9.54702 0 -2.03279)
(9.59816 0 -1.50961)
(9.76374 0 -0.62928)
(9.72355 0 0.135508)
(9.80935 0 0.810129)
(9.63865 0 1.62164)
(9.92212 0 1.31427)
(9.40564 0 2.20032)
(9.51896 0 1.39521)
(9.59206 0 0.46638)
(9.78291 0 -0.374664)
(9.48812 0 -1.43645)
(9.51971 0 -1.98335)
(9.67433 0 -1.82282)
(9.38774 0 -2.06207)
(9.71925 0 -0.907044)
(10.0583 0 -0.0814415)
(9.58374 0 0.771089)
(9.77276 0 1.23628)
(9.50243 0 2.12203)
(9.7005 0 1.72555)
(9.81338 0 1.1727)
(15.5814 0 0.394468)
(15.3817 0 1.36442)
(15.5539 0 1.61351)
(15.8087 0 1.21808)
(15.7494 0 1.14597)
(15.9279 0 0.510167)
(15.5884 0 0.131444)
(15.5562 0 -0.666498)
(15.7491 0 -1.02241)
(15.7414 0 -1.32287)
(15.6318 0 -1.54211)
(15.8421 0 -0.876822)
(15.7852 0 -0.486113)
(15.6224 0 0.12596)
(15.8175 0 0.628944)
(15.9742 0 0.751317)
(15.4218 0 2.0121)
(15.4356 0 1.83839)
(15.8252 0 0.771506)
(15.5784 0 0.395891)
(15.8794 0 -0.251239)
(15.4489 0 -1.27464)
(15.6292 0 -1.47027)
(15.9136 0 -1.00272)
(15.8567 0 -0.957527)
(15.5867 0 -0.877198)
(15.9486 0 -0.0732739)
(15.8757 0 0.414778)
(15.8502 0 0.864083)
(15.5913 0 1.62336)
(15.6542 0 1.49742)
(15.3954 0 1.57602)
(23.5033 0 0.0954944)
(23.4912 0 0.281835)
(23.5467 0 0.295416)
(23.5164 0 0.380876)
(23.4888 0 0.374171)
(23.5283 0 0.186844)
(23.5479 0 0.0248965)
(23.5399 0 -0.127719)
(23.5332 0 -0.264281)
(23.5384 0 -0.327451)
(23.5381 0 -0.328079)
(23.5491 0 -0.239276)
(23.5048 0 -0.15533)
(23.5409 0 0.0260265)
(23.5835 0 0.127485)
(23.4971 0 0.359662)
(23.4942 0 0.426518)
(23.5197 0 0.34675)
(23.518 0 0.245956)
(23.5403 0 0.0776844)
(23.5193 0 -0.0878226)
(23.4986 0 -0.271987)
(23.5869 0 -0.218947)
(23.533 0 -0.34684)
(23.5091 0 -0.338569)
(23.5426 0 -0.171468)
(23.4914 0 -0.0340099)
(23.5974 0 0.0824092)
(23.5257 0 0.276029)
(23.5084 0 0.387484)
(23.4418 0 0.520869)
(23.4875 0 0.335779)
(30.3727 0 0.000516169)
(30.3722 0 0.00218831)
(30.3725 0 0.00256732)
(30.3717 0 0.00433229)
(30.3722 0 0.00288932)
(30.3716 0 0.00235988)
(30.3717 0 0.000338581)
(30.3714 0 -0.00189848)
(30.3721 0 -0.00265175)
(30.3719 0 -0.00371303)
(30.3716 0 -0.00438303)
(30.3718 0 -0.00306962)
(30.3719 0 -0.00152137)
(30.3719 0 0.000312434)
(30.3717 0 0.00226929)
(30.3724 0 0.00248665)
(30.3718 0 0.00413137)
(30.3713 0 0.00471582)
(30.3716 0 0.00288292)
(30.3715 0 0.00109409)
(30.3723 0 -0.00070899)
(30.3719 0 -0.00249624)
(30.3721 0 -0.00319833)
(30.3721 0 -0.00345597)
(30.371 0 -0.0049043)
(30.3719 0 -0.00208925)
(30.372 0 -0.000289158)
(30.372 0 0.00142895)
(30.3724 0 0.00221518)
(30.3725 0 0.00254197)
(30.3717 0 0.00413006)
(30.3717 0 0.00322615)
(0.397638 0 0.0197923)
(0.360295 0 0.0817489)
(0.383489 0 0.0927132)
(0.340115 0 0.147624)
(0.320262 0 0.144886)
(0.396612 0 0.0448887)
(0.332565 0 0.0122701)
(0.340267 0 -0.0566038)
(0.360356 0 -0.0956643)
(0.4123 0 -0.0667529)
(0.37522 0 -0.106428)
(0.397896 0 -0.0642536)
(0.374577 0 -0.042156)
(0.348727 0 0.0108747)
(0.337777 0 0.0787157)
(0.343004 0 0.123549)
(0.370034 0 0.114803)
(0.374504 0 0.101848)
(0.351107 0 0.0883153)
(0.3935 0 0.0208552)
(0.369668 0 -0.026977)
(0.330119 0 -0.103314)
(0.363268 0 -0.113271)
(0.359644 0 -0.1262)
(0.380316 0 -0.0885413)
(0.395708 0 -0.0454088)
(0.374307 0 -0.00866625)
(0.373821 0 0.0424744)
(0.360229 0 0.095771)
(0.327879 0 0.157081)
(0.387192 0 0.0936172)
(0.32455 0 0.125625)
(1.29998 0 0.0987764)
(1.28771 0 0.283566)
(1.33203 0 0.358332)
(1.32335 0 0.396187)
(1.29794 0 0.36269)
(1.32046 0 0.209307)
(1.30475 0 0.0327866)
(1.20646 0 -0.201304)
(1.2665 0 -0.349762)
(1.39488 0 -0.309888)
(1.15697 0 -0.564451)
(1.39113 0 -0.245475)
(1.37694 0 -0.129514)
(1.25925 0 0.0367147)
(1.37336 0 0.178892)
(1.27869 0 0.380751)
(1.27864 0 0.445236)
(1.34723 0 0.342884)
(1.37213 0 0.223238)
(1.3312 0 0.0907559)
(1.32374 0 -0.0926727)
(1.18513 0 -0.356871)
(1.28367 0 -0.4075)
(1.2258 0 -0.50319)
(1.28414 0 -0.375637)
(1.36526 0 -0.18355)
(1.36177 0 -0.0278635)
(1.28266 0 0.169215)
(1.29044 0 0.329727)
(1.28444 0 0.428059)
(1.46152 0 0.23859)
(1.32449 0 0.301239)
(2.75199 0 0.205354)
(2.80525 0 0.533241)
(2.58055 0 0.987)
(3.05641 0 0.543009)
(2.84947 0 0.658579)
(2.81168 0 0.425309)
(2.80572 0 0.0643791)
(3.02777 0 -0.220506)
(2.76689 0 -0.656437)
(2.77065 0 -0.835395)
(2.68646 0 -0.925476)
(2.76094 0 -0.661415)
(2.62891 0 -0.388462)
(2.76885 0 0.0675621)
(2.88356 0 0.38398)
(2.59667 0 0.895766)
(2.55461 0 1.09348)
(2.54156 0 1.02663)
(2.71797 0 0.595614)
(2.53789 0 0.260353)
(2.70189 0 -0.218225)
(2.52733 0 -0.731847)
(2.81687 0 -0.746748)
(2.48899 0 -1.16547)
(3.00673 0 -0.511039)
(2.54176 0 -0.580497)
(2.60769 0 -0.0814766)
(2.80035 0 0.316269)
(2.9264 0 0.522967)
(2.27864 0 1.36183)
(2.85542 0 0.744697)
(2.81697 0 0.614532)
(5.03791 0 0.345977)
(4.94063 0 1.03204)
(4.72021 0 1.69221)
(4.40634 0 2.17031)
(4.84182 0 1.44763)
(4.60383 0 1.02395)
(4.80445 0 0.136436)
(4.61705 0 -0.744379)
(5.00937 0 -1.15084)
(5.16179 0 -1.30855)
(5.04892 0 -1.42932)
(5.16168 0 -1.0234)
(4.8048 0 -0.665318)
(5.22622 0 0.100023)
(4.83556 0 0.890713)
(5.61099 0 0.72598)
(5.10789 0 1.40072)
(4.88185 0 1.52789)
(5.0817 0 0.931221)
(5.00681 0 0.353968)
(4.95598 0 -0.367025)
(4.69375 0 -1.20847)
(5.46418 0 -0.935883)
(4.99583 0 -1.52365)
(5.14399 0 -1.16413)
(5.10295 0 -0.736978)
(5.31141 0 -0.0926676)
(5.20169 0 0.498189)
(4.75045 0 1.36749)
(4.7032 0 1.79924)
(4.92503 0 1.56188)
(5.09243 0 1.08134)
(8.41312 0 0.552131)
(8.5014 0 1.47294)
(8.58521 0 2.01015)
(8.93228 0 1.78834)
(8.67563 0 1.77032)
(9.72642 0 0.480702)
(8.57929 0 0.17122)
(8.95415 0 -0.677273)
(9.08476 0 -1.23648)
(9.20816 0 -1.44911)
(9.06184 0 -1.60568)
(8.96217 0 -1.33906)
(8.95153 0 -0.678378)
(8.90088 0 0.143456)
(8.68124 0 1.08162)
(8.80813 0 1.646)
(8.61088 0 2.1409)
(9.07967 0 1.50748)
(9.10212 0 1.04365)
(8.82327 0 0.446772)
(8.82073 0 -0.447425)
(8.91124 0 -1.18006)
(8.70576 0 -1.8876)
(9.14389 0 -1.5562)
(9.2407 0 -1.24016)
(8.10531 0 -1.41276)
(8.95884 0 -0.138452)
(8.99475 0 0.660177)
(9.35248 0 1.01247)
(8.65259 0 2.04356)
(8.10017 0 2.63464)
(9.50881 0 0.881661)
(15.2515 0 0.29559)
(14.6371 0 1.26144)
(15.2875 0 1.13328)
(15.3746 0 1.12724)
(15.26 0 1.07169)
(15.3942 0 0.579553)
(15.1492 0 0.108179)
(15.5259 0 -0.368998)
(14.8211 0 -1.32299)
(15.1069 0 -1.38595)
(15.0908 0 -1.40317)
(15.1741 0 -1.0276)
(15.0265 0 -0.579322)
(14.9939 0 0.121584)
(14.9878 0 0.813191)
(15.2284 0 1.10129)
(14.965 0 1.57663)
(15.347 0 1.07278)
(14.9742 0 1.0205)
(15.4377 0 0.247769)
(14.9446 0 -0.374436)
(14.8114 0 -1.13683)
(15.0731 0 -1.35119)
(14.9412 0 -1.60272)
(14.8747 0 -1.43316)
(15.2203 0 -0.679523)
(15.1795 0 -0.105567)
(14.9541 0 0.609817)
(15.1285 0 1.0658)
(15.2977 0 1.18177)
(14.9932 0 1.50765)
(15.2462 0 0.967244)
(23.3547 0 0.089225)
(23.3051 0 0.283647)
(23.3735 0 0.333989)
(23.4259 0 0.302889)
(23.3621 0 0.318873)
(23.3036 0 0.229066)
(23.3634 0 0.029234)
(23.2599 0 -0.186149)
(23.3609 0 -0.285445)
(23.4233 0 -0.298182)
(23.3671 0 -0.358352)
(23.4657 0 -0.197678)
(23.3937 0 -0.129821)
(23.35 0 0.0303904)
(23.2999 0 0.231188)
(23.4539 0 0.232762)
(23.4348 0 0.293082)
(23.353 0 0.35478)
(23.4117 0 0.207481)
(23.4495 0 0.0648485)
(23.4416 0 -0.0668881)
(23.4272 0 -0.196354)
(23.3277 0 -0.380537)
(23.4194 0 -0.310008)
(23.4247 0 -0.260181)
(23.4065 0 -0.169891)
(23.4749 0 -0.0196024)
(23.3353 0 0.154428)
(23.3797 0 0.269643)
(23.3663 0 0.359171)
(23.303 0 0.426917)
(23.3816 0 0.268052)
(30.3698 0 0.00101773)
(30.3708 0 0.00211784)
(30.3706 0 0.00326823)
(30.3692 0 0.00501187)
(30.3708 0 0.00278921)
(30.3694 0 0.00253882)
(30.3705 0 0.000281131)
(30.3711 0 -0.00115547)
(30.3711 0 -0.00226763)
(30.3705 0 -0.00350265)
(30.371 0 -0.00305138)
(30.3702 0 -0.0029917)
(30.3709 0 -0.00121205)
(30.3703 0 0.000298938)
(30.3703 0 0.0020277)
(30.3717 0 0.00193719)
(30.3709 0 0.00317813)
(30.3701 0 0.00375038)
(30.3694 0 0.00312001)
(30.3696 0 0.00107181)
(30.3704 0 -0.000875994)
(30.3695 0 -0.00304901)
(30.3702 0 -0.00362625)
(30.37 0 -0.00413942)
(30.3708 0 -0.00278829)
(30.3699 0 -0.00223592)
(30.3702 0 -0.000308815)
(30.3718 0 0.000853329)
(30.3696 0 0.00348399)
(30.3715 0 0.00249748)
(30.3702 0 0.00381381)
(30.3708 0 0.00254754)
(0.350196 0 0.0283395)
(0.344815 0 0.0822489)
(0.339944 0 0.121392)
(0.318393 0 0.15194)
(0.304267 0 0.141695)
(0.377147 0 0.0496979)
(0.304613 0 0.0130122)
(0.384438 0 -0.0336781)
(0.35037 0 -0.0921816)
(0.346478 0 -0.121568)
(0.349238 0 -0.118951)
(0.351892 0 -0.0910529)
(0.348918 0 -0.0469336)
(0.377432 0 0.00744087)
(0.34813 0 0.064482)
(0.386685 0 0.0731692)
(0.344096 0 0.126952)
(0.308383 0 0.149826)
(0.389976 0 0.053648)
(0.362841 0 0.0254609)
(0.348132 0 -0.0288093)
(0.338564 0 -0.0862075)
(0.346405 0 -0.115571)
(0.318083 0 -0.152241)
(0.33775 0 -0.113856)
(0.343295 0 -0.0669457)
(0.352767 0 -0.00932795)
(0.357665 0 0.0436693)
(0.348381 0 0.0936567)
(0.312362 0 0.153917)
(0.347053 0 0.121023)
(0.359691 0 0.0852704)
(1.45439 0 0.0523844)
(1.32026 0 0.230677)
(1.23154 0 0.408089)
(1.26932 0 0.403617)
(1.29757 0 0.321719)
(1.31403 0 0.188761)
(1.14269 0 0.0414536)
(1.31073 0 -0.139484)
(1.24689 0 -0.324494)
(1.19849 0 -0.460842)
(1.16395 0 -0.493589)
(1.17403 0 -0.378523)
(1.28052 0 -0.150758)
(1.16887 0 0.0394511)
(1.15224 0 0.271193)
(1.26466 0 0.349082)
(1.09306 0 0.574964)
(1.26647 0 0.376613)
(1.24301 0 0.279605)
(1.23413 0 0.102525)
(1.12605 0 -0.127128)
(1.24043 0 -0.281238)
(1.32302 0 -0.325668)
(1.37494 0 -0.300943)
(1.12214 0 -0.467579)
(1.24966 0 -0.221557)
(1.23781 0 -0.0341761)
(1.17325 0 0.190787)
(1.28783 0 0.294139)
(1.29241 0 0.371784)
(1.19353 0 0.465547)
(1.25781 0 0.316396)
(3.09704 0 0.103435)
(2.45687 0 0.693179)
(2.70476 0 0.762762)
(2.58646 0 0.938063)
(2.69279 0 0.7139)
(2.70731 0 0.430082)
(2.60951 0 0.0720641)
(2.68446 0 -0.323521)
(2.38071 0 -0.868079)
(2.42056 0 -1.07228)
(2.62675 0 -0.876768)
(2.69553 0 -0.634641)
(2.91704 0 -0.23673)
(2.50291 0 0.0802201)
(2.54436 0 0.513106)
(2.71078 0 0.698945)
(2.56148 0 0.962349)